Program Version,EnergyPlus, Version 8.4.0-09f5359d8a, YMD=2017.06.07 13:31
1,5,Environment Title[],Latitude[deg],Longitude[deg],Time Zone[],Elevation[m]
2,6,Day of Simulation[],Month[],Day of Month[],DST Indicator[1=yes 0=no],Hour[],StartMinute[],EndMinute[],DayType
3,3,Cumulative Day of Simulation[],Month[],Day of Month[],DST Indicator[1=yes 0=no],DayType  ! When Daily Report Variables Requested
4,2,Cumulative Days of Simulation[],Month[]  ! When Monthly Report Variables Requested
5,1,Cumulative Days of Simulation[] ! When Run Period Report Variables Requested
1045,1,BASEMENT,Zone Mean Air Temperature [C] !TimeStep
1046,1,CORE_BOTTOM,Zone Mean Air Temperature [C] !TimeStep
1047,1,CORE_MID,Zone Mean Air Temperature [C] !TimeStep
1048,1,CORE_TOP,Zone Mean Air Temperature [C] !TimeStep
1049,1,PERIMETER_BOT_ZN_3,Zone Mean Air Temperature [C] !TimeStep
1050,1,PERIMETER_BOT_ZN_2,Zone Mean Air Temperature [C] !TimeStep
1051,1,PERIMETER_BOT_ZN_1,Zone Mean Air Temperature [C] !TimeStep
1052,1,PERIMETER_BOT_ZN_4,Zone Mean Air Temperature [C] !TimeStep
1053,1,PERIMETER_MID_ZN_3,Zone Mean Air Temperature [C] !TimeStep
1054,1,PERIMETER_MID_ZN_2,Zone Mean Air Temperature [C] !TimeStep
1055,1,PERIMETER_MID_ZN_1,Zone Mean Air Temperature [C] !TimeStep
1056,1,PERIMETER_MID_ZN_4,Zone Mean Air Temperature [C] !TimeStep
1057,1,PERIMETER_TOP_ZN_3,Zone Mean Air Temperature [C] !TimeStep
1058,1,PERIMETER_TOP_ZN_2,Zone Mean Air Temperature [C] !TimeStep
1059,1,PERIMETER_TOP_ZN_1,Zone Mean Air Temperature [C] !TimeStep
1060,1,PERIMETER_TOP_ZN_4,Zone Mean Air Temperature [C] !TimeStep
1061,1,GROUNDFLOOR_PLENUM,Zone Mean Air Temperature [C] !TimeStep
1062,1,MIDFLOOR_PLENUM,Zone Mean Air Temperature [C] !TimeStep
1063,1,TOPFLOOR_PLENUM,Zone Mean Air Temperature [C] !TimeStep
1064,1,DATACENTER_BOT_ZN_6,Zone Mean Air Temperature [C] !TimeStep
1065,1,DATACENTER_MID_ZN_6,Zone Mean Air Temperature [C] !TimeStep
1066,1,DATACENTER_TOP_ZN_6,Zone Mean Air Temperature [C] !TimeStep
1067,1,DATACENTER_BASEMENT_ZN_6,Zone Mean Air Temperature [C] !TimeStep
1119,1,EMS,currentMinuteV [] !TimeStep
1120,1,EMS,currentHourV [] !TimeStep
1121,1,EMS,currentDayOfMonthV [] !TimeStep
1122,1,EMS,currentMonthV [] !TimeStep
1199,1,BASEMENT,Zone Thermostat Heating Setpoint Temperature [C] !TimeStep
1200,1,BASEMENT,Zone Thermostat Cooling Setpoint Temperature [C] !TimeStep
1237,1,CORE_BOTTOM,Zone Thermostat Heating Setpoint Temperature [C] !TimeStep
1238,1,CORE_BOTTOM,Zone Thermostat Cooling Setpoint Temperature [C] !TimeStep
1275,1,CORE_MID,Zone Thermostat Heating Setpoint Temperature [C] !TimeStep
1276,1,CORE_MID,Zone Thermostat Cooling Setpoint Temperature [C] !TimeStep
1313,1,CORE_TOP,Zone Thermostat Heating Setpoint Temperature [C] !TimeStep
1314,1,CORE_TOP,Zone Thermostat Cooling Setpoint Temperature [C] !TimeStep
1351,1,PERIMETER_BOT_ZN_3,Zone Thermostat Heating Setpoint Temperature [C] !TimeStep
1352,1,PERIMETER_BOT_ZN_3,Zone Thermostat Cooling Setpoint Temperature [C] !TimeStep
1389,1,PERIMETER_BOT_ZN_2,Zone Thermostat Heating Setpoint Temperature [C] !TimeStep
1390,1,PERIMETER_BOT_ZN_2,Zone Thermostat Cooling Setpoint Temperature [C] !TimeStep
1427,1,PERIMETER_BOT_ZN_1,Zone Thermostat Heating Setpoint Temperature [C] !TimeStep
1428,1,PERIMETER_BOT_ZN_1,Zone Thermostat Cooling Setpoint Temperature [C] !TimeStep
1465,1,PERIMETER_BOT_ZN_4,Zone Thermostat Heating Setpoint Temperature [C] !TimeStep
1466,1,PERIMETER_BOT_ZN_4,Zone Thermostat Cooling Setpoint Temperature [C] !TimeStep
1503,1,PERIMETER_MID_ZN_3,Zone Thermostat Heating Setpoint Temperature [C] !TimeStep
1504,1,PERIMETER_MID_ZN_3,Zone Thermostat Cooling Setpoint Temperature [C] !TimeStep
1541,1,PERIMETER_MID_ZN_2,Zone Thermostat Heating Setpoint Temperature [C] !TimeStep
1542,1,PERIMETER_MID_ZN_2,Zone Thermostat Cooling Setpoint Temperature [C] !TimeStep
1579,1,PERIMETER_MID_ZN_1,Zone Thermostat Heating Setpoint Temperature [C] !TimeStep
1580,1,PERIMETER_MID_ZN_1,Zone Thermostat Cooling Setpoint Temperature [C] !TimeStep
1617,1,PERIMETER_MID_ZN_4,Zone Thermostat Heating Setpoint Temperature [C] !TimeStep
1618,1,PERIMETER_MID_ZN_4,Zone Thermostat Cooling Setpoint Temperature [C] !TimeStep
1655,1,PERIMETER_TOP_ZN_3,Zone Thermostat Heating Setpoint Temperature [C] !TimeStep
1656,1,PERIMETER_TOP_ZN_3,Zone Thermostat Cooling Setpoint Temperature [C] !TimeStep
1693,1,PERIMETER_TOP_ZN_2,Zone Thermostat Heating Setpoint Temperature [C] !TimeStep
1694,1,PERIMETER_TOP_ZN_2,Zone Thermostat Cooling Setpoint Temperature [C] !TimeStep
1731,1,PERIMETER_TOP_ZN_1,Zone Thermostat Heating Setpoint Temperature [C] !TimeStep
1732,1,PERIMETER_TOP_ZN_1,Zone Thermostat Cooling Setpoint Temperature [C] !TimeStep
1769,1,PERIMETER_TOP_ZN_4,Zone Thermostat Heating Setpoint Temperature [C] !TimeStep
1770,1,PERIMETER_TOP_ZN_4,Zone Thermostat Cooling Setpoint Temperature [C] !TimeStep
1807,1,GROUNDFLOOR_PLENUM,Zone Thermostat Heating Setpoint Temperature [C] !TimeStep
1808,1,GROUNDFLOOR_PLENUM,Zone Thermostat Cooling Setpoint Temperature [C] !TimeStep
1845,1,MIDFLOOR_PLENUM,Zone Thermostat Heating Setpoint Temperature [C] !TimeStep
1846,1,MIDFLOOR_PLENUM,Zone Thermostat Cooling Setpoint Temperature [C] !TimeStep
1883,1,TOPFLOOR_PLENUM,Zone Thermostat Heating Setpoint Temperature [C] !TimeStep
1884,1,TOPFLOOR_PLENUM,Zone Thermostat Cooling Setpoint Temperature [C] !TimeStep
1921,1,DATACENTER_BOT_ZN_6,Zone Thermostat Heating Setpoint Temperature [C] !TimeStep
1922,1,DATACENTER_BOT_ZN_6,Zone Thermostat Cooling Setpoint Temperature [C] !TimeStep
1959,1,DATACENTER_MID_ZN_6,Zone Thermostat Heating Setpoint Temperature [C] !TimeStep
1960,1,DATACENTER_MID_ZN_6,Zone Thermostat Cooling Setpoint Temperature [C] !TimeStep
1997,1,DATACENTER_TOP_ZN_6,Zone Thermostat Heating Setpoint Temperature [C] !TimeStep
1998,1,DATACENTER_TOP_ZN_6,Zone Thermostat Cooling Setpoint Temperature [C] !TimeStep
2035,1,DATACENTER_BASEMENT_ZN_6,Zone Thermostat Heating Setpoint Temperature [C] !TimeStep
2036,1,DATACENTER_BASEMENT_ZN_6,Zone Thermostat Cooling Setpoint Temperature [C] !TimeStep
2255,1,Whole Building,Facility Total Electric Demand Power [W] !TimeStep
End of Data Dictionary
1,BOISE AIR TERMINAL  UO ANN HTG 99.6% CONDNS DB,  43.62,-116.21,  -7.00, 701.00
2,1,12,21, 0, 1, 0.00, 1.00,WinterDesignDay
1045,22.0256114003959
1046,20.7673759908246
1047,13.2536627608748
1048,11.8022615047104
1049,16.2178167133344
1050,14.6915206076461
1051,14.5050299850676
1052,21.5181854874668
1053,10.9657656623242
1054,10.3604596370082
1055,9.99066261464749
1056,12.3671265215195
1057,12.7505182110606
1058,10.3255204795725
1059,11.4810858129159
1060,11.6826421251424
1061,18.6354639540138
1062,11.6366473808807
1063,9.47491349712277
1064,28.5242126985499
1065,27.2223593646248
1066,27.0557063999881
1067,22.2018213885467
1199,15.6
1200,26.7
1237,15.6
1238,26.7
1275,15.6
1276,26.7
1313,15.6
1314,26.7
1351,15.6
1352,26.7
1389,15.6
1390,26.7
1427,15.6
1428,26.7
1465,15.6
1466,26.7
1503,15.6
1504,26.7
1541,15.6
1542,26.7
1579,15.6
1580,26.7
1617,15.6
1618,26.7
1655,15.6
1656,26.7
1693,15.6
1694,26.7
1731,15.6
1732,26.7
1769,15.6
1770,26.7
1807,0.0
1808,0.0
1845,0.0
1846,0.0
1883,0.0
1884,0.0
1921,18.
1922,27.
1959,18.
1960,27.
1997,18.
1998,27.
2035,18.
2036,27.
1119,1.
1120,0.0
1121,21.
1122,12.
2255,775761.07838649
2,1,12,21, 0, 1, 1.00, 2.00,WinterDesignDay
1045,22.0259214678553
1046,20.7667275504167
1047,13.2535809087008
1048,11.8023376458168
1049,16.2179077399382
1050,14.6917423294891
1051,14.5051776483365
1052,21.517266001107
1053,10.9673894449346
1054,10.3613093943867
1055,9.99180703420329
1056,12.3674975542251
1057,12.7523481492864
1058,10.3264288578686
1059,11.4823637938895
1060,11.6830193201138
1061,18.6351761365883
1062,11.6374838712291
1063,9.47646565656751
1064,28.5241912611604
1065,27.0541759134118
1066,27.013740471815
1067,22.2018305360302
1199,15.6
1200,26.7
1237,15.6
1238,26.7
1275,15.6
1276,26.7
1313,15.6
1314,26.7
1351,15.6
1352,26.7
1389,15.6
1390,26.7
1427,15.6
1428,26.7
1465,15.6
1466,26.7
1503,15.6
1504,26.7
1541,15.6
1542,26.7
1579,15.6
1580,26.7
1617,15.6
1618,26.7
1655,15.6
1656,26.7
1693,15.6
1694,26.7
1731,15.6
1732,26.7
1769,15.6
1770,26.7
1807,0.0
1808,0.0
1845,0.0
1846,0.0
1883,0.0
1884,0.0
1921,18.
1922,27.
1959,18.
1960,27.
1997,18.
1998,27.
2035,18.
2036,27.
1119,2.
1120,0.0
1121,21.
1122,12.
2255,782842.957439683
2,1,12,21, 0, 1, 2.00, 3.00,WinterDesignDay
1045,22.0262536497184
1046,20.7660160036042
1047,13.2533226862203
1048,11.8022150944112
1049,16.2180060418054
1050,14.691947681068
1051,14.5053034563512
1052,21.5164704842415
1053,10.9687832104678
1054,10.3620206236025
1055,9.99277551646147
1056,12.3678015545928
1057,12.7539225480469
1058,10.3271950416218
1059,11.4834536734359
1060,11.6833273553526
1061,18.6349140330908
1062,11.6382429386847
1063,9.4778676790117
1064,28.5241712615895
1065,27.2223494778746
1066,27.0556976447374
1067,22.2018396513063
1199,15.6
1200,26.7
1237,15.6
1238,26.7
1275,15.6
1276,26.7
1313,15.6
1314,26.7
1351,15.6
1352,26.7
1389,15.6
1390,26.7
1427,15.6
1428,26.7
1465,15.6
1466,26.7
1503,15.6
1504,26.7
1541,15.6
1542,26.7
1579,15.6
1580,26.7
1617,15.6
1618,26.7
1655,15.6
1656,26.7
1693,15.6
1694,26.7
1731,15.6
1732,26.7
1769,15.6
1770,26.7
1807,0.0
1808,0.0
1845,0.0
1846,0.0
1883,0.0
1884,0.0
1921,18.
1922,27.
1959,18.
1960,27.
1997,18.
1998,27.
2035,18.
2036,27.
1119,3.
1120,0.0
1121,21.
1122,12.
2255,775760.830743056
2,1,12,21, 0, 1, 3.00, 4.00,WinterDesignDay
1045,22.0265904917926
1046,20.7653486999617
1047,13.2530252009446
1048,11.8020396702453
1049,16.2181096940068
1050,14.6921372148513
1051,14.5054093669802
1052,21.5157751917676
1053,10.9699836460675
1054,10.3626190195547
1055,9.99359737274539
1056,12.368051549176
1057,12.7552877256384
1058,10.3278472373134
1059,11.4843911784853
1060,11.683580700333
1061,18.6346727267862
1062,11.6389256838127
1063,9.47913541850605
1064,28.5241536333547
1065,27.0541736586406
1066,27.0137385694893
1067,22.2018487823934
1199,15.6
1200,26.7
1237,15.6
1238,26.7
1275,15.6
1276,26.7
1313,15.6
1314,26.7
1351,15.6
1352,26.7
1389,15.6
1390,26.7
1427,15.6
1428,26.7
1465,15.6
1466,26.7
1503,15.6
1504,26.7
1541,15.6
1542,26.7
1579,15.6
1580,26.7
1617,15.6
1618,26.7
1655,15.6
1656,26.7
1693,15.6
1694,26.7
1731,15.6
1732,26.7
1769,15.6
1770,26.7
1807,0.0
1808,0.0
1845,0.0
1846,0.0
1883,0.0
1884,0.0
1921,18.
1922,27.
1959,18.
1960,27.
1997,18.
1998,27.
2035,18.
2036,27.
1119,4.
1120,0.0
1121,21.
1122,12.
2255,782842.536383318
2,1,12,21, 0, 1, 4.00, 5.00,WinterDesignDay
1045,22.0269238551241
1046,20.7647700208205
1047,13.2527506703471
1048,11.8018778016412
1049,16.2182173589758
1050,14.6923125498449
1051,14.5054979518779
1052,21.5151614752764
1053,10.9710210885617
1054,10.3631254270033
1055,9.9942968203261
1056,12.3682579670237
1057,12.7564811174911
1058,10.3284080431097
1059,11.4852050978938
1060,11.6837908301733
1061,18.6344490346711
1062,11.6395357226713
1063,9.4802849760458
1064,28.5241369952265
1065,27.2223442019949
1066,27.0556953925042
1067,22.2018578773561
1199,15.6
1200,26.7
1237,15.6
1238,26.7
1275,15.6
1276,26.7
1313,15.6
1314,26.7
1351,15.6
1352,26.7
1389,15.6
1390,26.7
1427,15.6
1428,26.7
1465,15.6
1466,26.7
1503,15.6
1504,26.7
1541,15.6
1542,26.7
1579,15.6
1580,26.7
1617,15.6
1618,26.7
1655,15.6
1656,26.7
1693,15.6
1694,26.7
1731,15.6
1732,26.7
1769,15.6
1770,26.7
1807,0.0
1808,0.0
1845,0.0
1846,0.0
1883,0.0
1884,0.0
1921,18.
1922,27.
1959,18.
1960,27.
1997,18.
1998,27.
2035,18.
2036,27.
1119,5.
1120,0.0
1121,21.
1122,12.
2255,775760.701697862
2,1,12,21, 0, 1, 5.00, 6.00,WinterDesignDay
1045,22.0272520966213
1046,20.7642827879603
1047,13.2525114654788
1048,11.8017434307831
1049,16.2183281459953
1050,14.6924759990785
1051,14.5055721409889
1052,21.5146147753637
1053,10.9719208483832
1054,10.3635567951827
1055,9.99489397976662
1056,12.3684291639102
1057,12.7575331452795
1058,10.3288955395009
1059,11.4859186513439
1060,11.6839668234369
1061,18.6342413972779
1062,11.6400788440391
1063,9.48133263413636
1064,28.5241224210816
1065,27.0541724907334
1066,27.0137382009066
1067,22.2018669833243
1199,15.6
1200,26.7
1237,15.6
1238,26.7
1275,15.6
1276,26.7
1313,15.6
1314,26.7
1351,15.6
1352,26.7
1389,15.6
1390,26.7
1427,15.6
1428,26.7
1465,15.6
1466,26.7
1503,15.6
1504,26.7
1541,15.6
1542,26.7
1579,15.6
1580,26.7
1617,15.6
1618,26.7
1655,15.6
1656,26.7
1693,15.6
1694,26.7
1731,15.6
1732,26.7
1769,15.6
1770,26.7
1807,0.0
1808,0.0
1845,0.0
1846,0.0
1883,0.0
1884,0.0
1921,18.
1922,27.
1959,18.
1960,27.
1997,18.
1998,27.
2035,18.
2036,27.
1119,6.
1120,0.0
1121,21.
1122,12.
2255,782842.308631036
2,1,12,21, 0, 1, 6.00, 7.00,WinterDesignDay
1045,22.0275759811007
1046,20.7638755765569
1047,13.2523021419011
1048,11.801631827241
1049,16.2184414032631
1050,14.6926297910738
1051,14.5056346477011
1052,21.514123422853
1053,10.9727040174931
1054,10.3639268128515
1055,9.99540552984694
1056,12.3685717958297
1057,12.7584683088529
1058,10.3293239909992
1059,11.4865503390324
1060,11.6841157667125
1061,18.6340490787303
1062,11.6405616767972
1063,9.48229343925401
1064,28.5241089345516
1065,27.2223421785067
1066,27.0556976646431
1067,22.2018760486663
1199,15.6
1200,26.7
1237,15.6
1238,26.7
1275,15.6
1276,26.7
1313,15.6
1314,26.7
1351,15.6
1352,26.7
1389,15.6
1390,26.7
1427,15.6
1428,26.7
1465,15.6
1466,26.7
1503,15.6
1504,26.7
1541,15.6
1542,26.7
1579,15.6
1580,26.7
1617,15.6
1618,26.7
1655,15.6
1656,26.7
1693,15.6
1694,26.7
1731,15.6
1732,26.7
1769,15.6
1770,26.7
1807,0.0
1808,0.0
1845,0.0
1846,0.0
1883,0.0
1884,0.0
1921,18.
1922,27.
1959,18.
1960,27.
1997,18.
1998,27.
2035,18.
2036,27.
1119,7.
1120,0.0
1121,21.
1122,12.
2255,775760.64633095
2,1,12,21, 0, 1, 7.00, 8.00,WinterDesignDay
1045,22.0278965479249
1046,20.7635357009818
1047,13.2521153626771
1048,11.8015363539642
1049,16.2185564994744
1050,14.6927755921569
1051,14.5056876574515
1052,21.513678994045
1053,10.9733875322888
1054,10.3642454244373
1055,9.99584459450815
1056,12.3686906285562
1057,12.7593039371824
1058,10.3297028963991
1059,11.4871126877935
1060,11.6842424932092
1061,18.6338714963594
1062,11.6409906178105
1063,9.48318042813761
1064,28.5240968873348
1065,27.0541720830447
1066,27.0137388923778
1067,22.2018851200832
1199,15.6
1200,26.7
1237,15.6
1238,26.7
1275,15.6
1276,26.7
1313,15.6
1314,26.7
1351,15.6
1352,26.7
1389,15.6
1390,26.7
1427,15.6
1428,26.7
1465,15.6
1466,26.7
1503,15.6
1504,26.7
1541,15.6
1542,26.7
1579,15.6
1580,26.7
1617,15.6
1618,26.7
1655,15.6
1656,26.7
1693,15.6
1694,26.7
1731,15.6
1732,26.7
1769,15.6
1770,26.7
1807,0.0
1808,0.0
1845,0.0
1846,0.0
1883,0.0
1884,0.0
1921,18.
1922,27.
1959,18.
1960,27.
1997,18.
1998,27.
2035,18.
2036,27.
1119,8.
1120,0.0
1121,21.
1122,12.
2255,782842.243719316
2,1,12,21, 0, 1, 8.00, 9.00,WinterDesignDay
1045,22.0282145180386
1046,20.7632533283574
1047,13.251946238923
1048,11.8014529219549
1049,16.2186728863198
1050,14.6929146426885
1051,14.5057329050528
1052,21.5132745811861
1053,10.9739855251131
1054,10.3645205754153
1055,9.99622201834991
1056,12.368789406361
1057,12.760053909237
1058,10.3300396112819
1059,11.4876155413506
1060,11.6843506878144
1061,18.6337079819637
1062,11.6413714090225
1063,9.48400428364854
1064,28.5240857995023
1065,27.2223422550552
1066,27.0557028796459
1067,22.201894144736
1199,15.6
1200,26.7
1237,15.6
1238,26.7
1275,15.6
1276,26.7
1313,15.6
1314,26.7
1351,15.6
1352,26.7
1389,15.6
1390,26.7
1427,15.6
1428,26.7
1465,15.6
1466,26.7
1503,15.6
1504,26.7
1541,15.6
1542,26.7
1579,15.6
1580,26.7
1617,15.6
1618,26.7
1655,15.6
1656,26.7
1693,15.6
1694,26.7
1731,15.6
1732,26.7
1769,15.6
1770,26.7
1807,0.0
1808,0.0
1845,0.0
1846,0.0
1883,0.0
1884,0.0
1921,18.
1922,27.
1959,18.
1960,27.
1997,18.
1998,27.
2035,18.
2036,27.
1119,9.
1120,0.0
1121,21.
1122,12.
2255,775760.648092565
2,1,12,21, 0, 1, 9.00,10.00,WinterDesignDay
1045,22.0285303186164
1046,20.7630213551128
1047,13.2517927467007
1048,11.8013795935542
1049,16.2187901409485
1050,14.6930479365686
1051,14.5057718031925
1052,21.5129038905466
1053,10.9745113495689
1054,10.3647623196241
1055,9.99654931831068
1056,12.3688747391466
1057,12.7607310368702
1058,10.3303409987964
1059,11.4880681320569
1060,11.6844436330797
1061,18.6335577697476
1062,11.6417090407682
1063,9.48477354771458
1064,28.5240762005752
1065,27.0541721581664
1066,27.0137402645948
1067,22.2019031690855
1199,15.6
1200,26.7
1237,15.6
1238,26.7
1275,15.6
1276,26.7
1313,15.6
1314,26.7
1351,15.6
1352,26.7
1389,15.6
1390,26.7
1427,15.6
1428,26.7
1465,15.6
1466,26.7
1503,15.6
1504,26.7
1541,15.6
1542,26.7
1579,15.6
1580,26.7
1617,15.6
1618,26.7
1655,15.6
1656,26.7
1693,15.6
1694,26.7
1731,15.6
1732,26.7
1769,15.6
1770,26.7
1807,0.0
1808,0.0
1845,0.0
1846,0.0
1883,0.0
1884,0.0
1921,18.
1922,27.
1959,18.
1960,27.
1997,18.
1998,27.
2035,18.
2036,27.
1119,10.
1120,0.0
1121,21.
1122,12.
2255,782842.337144601
2,1,12,21, 0, 1,10.00,11.00,WinterDesignDay
1045,22.028844230037
1046,20.7628342703833
1047,13.251652129852
1048,11.8013153765509
1049,16.2189079173087
1050,14.6931762763622
1051,14.5058055130551
1052,21.5125613737815
1053,10.9749741230306
1054,10.3649723287323
1055,9.99683161012568
1056,12.368944452528
1057,12.7613465239761
1058,10.3306130559538
1059,11.4884785914983
1060,11.6845241131864
1061,18.6334200489098
1062,11.6420080179587
1063,9.48549526825173
1064,28.5240670191269
1065,27.2223435384998
1066,27.0557098583082
1067,22.2019121421231
1199,15.6
1200,26.7
1237,15.6
1238,26.7
1275,15.6
1276,26.7
1313,15.6
1314,26.7
1351,15.6
1352,26.7
1389,15.6
1390,26.7
1427,15.6
1428,26.7
1465,15.6
1466,26.7
1503,15.6
1504,26.7
1541,15.6
1542,26.7
1579,15.6
1580,26.7
1617,15.6
1618,26.7
1655,15.6
1656,26.7
1693,15.6
1694,26.7
1731,15.6
1732,26.7
1769,15.6
1770,26.7
1807,0.0
1808,0.0
1845,0.0
1846,0.0
1883,0.0
1884,0.0
1921,18.
1922,27.
1959,18.
1960,27.
1997,18.
1998,27.
2035,18.
2036,27.
1119,11.
1120,0.0
1121,21.
1122,12.
2255,775760.696783198
2,1,12,21, 0, 1,11.00,12.00,WinterDesignDay
1045,22.0291564698758
1046,20.762687388721
1047,13.2515235427472
1048,11.8012595313257
1049,16.219025940558
1050,14.6933003234012
1051,14.5058349986701
1052,21.5122423172523
1053,10.9753836690673
1054,10.3651580002753
1055,9.9970773240705
1056,12.3690034352934
1057,12.7619099974209
1058,10.3308608791137
1059,11.4888538897037
1060,11.6845944409514
1061,18.6332940270166
1062,11.6422723099538
1063,9.48617526371366
1064,28.5240587511252
1065,27.0541725044364
1066,27.0137420384077
1067,22.2019211118527
1199,15.6
1200,26.7
1237,15.6
1238,26.7
1275,15.6
1276,26.7
1313,15.6
1314,26.7
1351,15.6
1352,26.7
1389,15.6
1390,26.7
1427,15.6
1428,26.7
1465,15.6
1466,26.7
1503,15.6
1504,26.7
1541,15.6
1542,26.7
1579,15.6
1580,26.7
1617,15.6
1618,26.7
1655,15.6
1656,26.7
1693,15.6
1694,26.7
1731,15.6
1732,26.7
1769,15.6
1770,26.7
1807,0.0
1808,0.0
1845,0.0
1846,0.0
1883,0.0
1884,0.0
1921,18.
1922,27.
1959,18.
1960,27.
1997,18.
1998,27.
2035,18.
2036,27.
1119,12.
1120,0.0
1121,21.
1122,12.
2255,782842.452371926
2,1,12,21, 0, 1,12.00,13.00,WinterDesignDay
1045,22.0294672333948
1046,20.7625765339437
1047,13.2514050886819
1048,11.8012113232104
1049,16.2191440017024
1050,14.693420636318
1051,14.5058610701979
1052,21.5119427821934
1053,10.9757467783098
1054,10.3653209555273
1055,9.99729045696845
1056,12.3690506791742
1057,12.7624294045013
1058,10.3310885899453
1059,11.4891997243644
1060,11.684656451401
1061,18.6331789630383
1062,11.6425055266713
1063,9.48681836145564
1064,28.5240514501943
1065,27.2223454028001
1066,27.0557177913109
1067,22.201930028432
1199,15.6
1200,26.7
1237,15.6
1238,26.7
1275,15.6
1276,26.7
1313,15.6
1314,26.7
1351,15.6
1352,26.7
1389,15.6
1390,26.7
1427,15.6
1428,26.7
1465,15.6
1466,26.7
1503,15.6
1504,26.7
1541,15.6
1542,26.7
1579,15.6
1580,26.7
1617,15.6
1618,26.7
1655,15.6
1656,26.7
1693,15.6
1694,26.7
1731,15.6
1732,26.7
1769,15.6
1770,26.7
1807,0.0
1808,0.0
1845,0.0
1846,0.0
1883,0.0
1884,0.0
1921,18.
1922,27.
1959,18.
1960,27.
1997,18.
1998,27.
2035,18.
2036,27.
1119,13.
1120,0.0
1121,21.
1122,12.
2255,775760.77690002
2,1,12,21, 0, 1,13.00,14.00,WinterDesignDay
1045,22.0297766851409
1046,20.7624976449772
1047,13.2512960726828
1048,11.8011700028747
1049,16.2192618561625
1050,14.6935375540493
1051,14.5058843432615
1052,21.5116605682627
1053,10.976069705493
1054,10.3654660762773
1055,9.99747664383461
1056,12.3690900309734
1057,12.762908968372
1058,10.3312980945197
1059,11.4895188241833
1060,11.6847110881696
1061,18.6330741589388
1062,11.642710872262
1063,9.4874286881406
1064,28.5240444841732
1065,27.0541729758591
1066,27.0137440248701
1067,22.2019389084508
1199,15.6
1200,26.7
1237,15.6
1238,26.7
1275,15.6
1276,26.7
1313,15.6
1314,26.7
1351,15.6
1352,26.7
1389,15.6
1390,26.7
1427,15.6
1428,26.7
1465,15.6
1466,26.7
1503,15.6
1504,26.7
1541,15.6
1542,26.7
1579,15.6
1580,26.7
1617,15.6
1618,26.7
1655,15.6
1656,26.7
1693,15.6
1694,26.7
1731,15.6
1732,26.7
1769,15.6
1770,26.7
1807,0.0
1808,0.0
1845,0.0
1846,0.0
1883,0.0
1884,0.0
1921,18.
1922,27.
1959,18.
1960,27.
1997,18.
1998,27.
2035,18.
2036,27.
1119,14.
1120,0.0
1121,21.
1122,12.
2255,782842.560523456
2,1,12,21, 0, 1,14.00,15.00,WinterDesignDay
1045,22.0300849751665
1046,20.7624468924458
1047,13.2511955164143
1048,11.8011348407592
1049,16.2193791091798
1050,14.6936504064024
1051,14.5059045768446
1052,21.5113932987372
1053,10.9763572095363
1054,10.3655959564514
1055,9.99763961885906
1056,12.3691230850914
1057,12.763352033079
1058,10.3314908116708
1059,11.4898132735756
1060,11.6847590298148
1061,18.6329789608654
1062,11.6428912699757
1063,9.48800971198549
1064,28.5240385583644
1065,27.222347431982
1066,27.0557261458709
1067,22.2019477986649
1199,15.6
1200,26.7
1237,15.6
1238,26.7
1275,15.6
1276,26.7
1313,15.6
1314,26.7
1351,15.6
1352,26.7
1389,15.6
1390,26.7
1427,15.6
1428,26.7
1465,15.6
1466,26.7
1503,15.6
1504,26.7
1541,15.6
1542,26.7
1579,15.6
1580,26.7
1617,15.6
1618,26.7
1655,15.6
1656,26.7
1693,15.6
1694,26.7
1731,15.6
1732,26.7
1769,15.6
1770,26.7
1807,0.0
1808,0.0
1845,0.0
1846,0.0
1883,0.0
1884,0.0
1921,18.
1922,27.
1959,18.
1960,27.
1997,18.
1998,27.
2035,18.
2036,27.
1119,15.
1120,0.0
1121,21.
1122,12.
2255,775760.980913393
2,1,12,21, 0, 1,15.00,16.00,WinterDesignDay
1045,22.0303922358715
1046,20.7624213221335
1047,13.2511023093298
1048,11.8011051672973
1049,16.2194958039857
1050,14.6937602987707
1051,14.5059228501618
1052,21.5111394894323
1053,10.9766135494896
1054,10.365712168242
1055,9.99778222352715
1056,12.3691501249238
1057,12.7637627271429
1058,10.3316686904887
1059,11.4900858738893
1060,11.6848010948585
1061,18.6328927435412
1062,11.6430493214798
1063,9.48856428118179
1064,28.5240326268793
1065,27.0541734761671
1066,27.0137461003238
1067,22.2019566356997
1199,15.6
1200,26.7
1237,15.6
1238,26.7
1275,15.6
1276,26.7
1313,15.6
1314,26.7
1351,15.6
1352,26.7
1389,15.6
1390,26.7
1427,15.6
1428,26.7
1465,15.6
1466,26.7
1503,15.6
1504,26.7
1541,15.6
1542,26.7
1579,15.6
1580,26.7
1617,15.6
1618,26.7
1655,15.6
1656,26.7
1693,15.6
1694,26.7
1731,15.6
1732,26.7
1769,15.6
1770,26.7
1807,0.0
1808,0.0
1845,0.0
1846,0.0
1883,0.0
1884,0.0
1921,18.
1922,27.
1959,18.
1960,27.
1997,18.
1998,27.
2035,18.
2036,27.
1119,16.
1120,0.0
1121,21.
1122,12.
2255,782842.759841306
2,1,12,21, 0, 1,16.00,17.00,WinterDesignDay
1045,22.0306985886767
1046,20.762418385152
1047,13.2510154014598
1048,11.8010803650149
1049,16.2196119706609
1050,14.6938680522182
1051,14.5059399785195
1052,21.510897515543
1053,10.9768424698032
1054,10.3658159089116
1055,9.99790680761059
1056,12.3691711078805
1057,12.7641451046425
1058,10.3318336940105
1059,11.4903394559281
1060,11.684838063113
1061,18.6328149157721
1062,11.6431873789182
1063,9.48909484022763
1064,28.5240277345848
1065,27.2223493599051
1066,27.0557345803062
1067,22.2019654374307
1199,15.6
1200,26.7
1237,15.6
1238,26.7
1275,15.6
1276,26.7
1313,15.6
1314,26.7
1351,15.6
1352,26.7
1389,15.6
1390,26.7
1427,15.6
1428,26.7
1465,15.6
1466,26.7
1503,15.6
1504,26.7
1541,15.6
1542,26.7
1579,15.6
1580,26.7
1617,15.6
1618,26.7
1655,15.6
1656,26.7
1693,15.6
1694,26.7
1731,15.6
1732,26.7
1769,15.6
1770,26.7
1807,0.0
1808,0.0
1845,0.0
1846,0.0
1883,0.0
1884,0.0
1921,18.
1922,27.
1959,18.
1960,27.
1997,18.
1998,27.
2035,18.
2036,27.
1119,17.
1120,0.0
1121,21.
1122,12.
2255,775761.063769871
2,1,12,21, 0, 1,17.00,18.00,WinterDesignDay
1045,22.0310041362927
1046,20.7624357595083
1047,13.2509339073155
1048,11.8010598729455
1049,16.2197275531275
1050,14.6939738727005
1051,14.5059562603011
1052,21.5106655695769
1053,10.9770473944788
1054,10.3659085040787
1055,9.99801560227145
1056,12.3691862779124
1057,12.7645029275227
1058,10.3319876532708
1059,11.4905766656351
1060,11.6848706431631
1061,18.6327449307619
1062,11.6433074974407
1063,9.48960345402294
1064,28.5240226579468
1065,27.0541739441659
1066,27.0137481858134
1067,22.2019742413811
1199,15.6
1200,26.7
1237,15.6
1238,26.7
1275,15.6
1276,26.7
1313,15.6
1314,26.7
1351,15.6
1352,26.7
1389,15.6
1390,26.7
1427,15.6
1428,26.7
1465,15.6
1466,26.7
1503,15.6
1504,26.7
1541,15.6
1542,26.7
1579,15.6
1580,26.7
1617,15.6
1618,26.7
1655,15.6
1656,26.7
1693,15.6
1694,26.7
1731,15.6
1732,26.7
1769,15.6
1770,26.7
1807,0.0
1808,0.0
1845,0.0
1846,0.0
1883,0.0
1884,0.0
1921,18.
1922,27.
1959,18.
1960,27.
1997,18.
1998,27.
2035,18.
2036,27.
1119,18.
1120,0.0
1121,21.
1122,12.
2255,782843.033864698
2,1,12,21, 0, 1,18.00,19.00,WinterDesignDay
1045,22.0313089715731
1046,20.7624712414887
1047,13.2508571031964
1048,11.8010431710687
1049,16.2198423733518
1050,14.6940772137788
1051,14.5059713665186
1052,21.5104416091525
1053,10.9772313937568
1054,10.3659913838612
1055,9.99811072106437
1056,12.3691961885415
1057,12.7648394331875
1058,10.3321321238449
1059,11.4907997652313
1060,11.6848994227921
1061,18.6326822807696
1062,11.643411530172
1063,9.49009187474604
1064,28.5240185771753
1065,27.2223510201227
1066,27.0557428785385
1067,22.2019829927494
1199,15.6
1200,26.7
1237,15.6
1238,26.7
1275,15.6
1276,26.7
1313,15.6
1314,26.7
1351,15.6
1352,26.7
1389,15.6
1390,26.7
1427,15.6
1428,26.7
1465,15.6
1466,26.7
1503,15.6
1504,26.7
1541,15.6
1542,26.7
1579,15.6
1580,26.7
1617,15.6
1618,26.7
1655,15.6
1656,26.7
1693,15.6
1694,26.7
1731,15.6
1732,26.7
1769,15.6
1770,26.7
1807,0.0
1808,0.0
1845,0.0
1846,0.0
1883,0.0
1884,0.0
1921,18.
1922,27.
1959,18.
1960,27.
1997,18.
1998,27.
2035,18.
2036,27.
1119,19.
1120,0.0
1121,21.
1122,12.
2255,775761.187559064
2,1,12,21, 0, 1,19.00,20.00,WinterDesignDay
1045,22.0316131540317
1046,20.7625229439764
1047,13.2507843744119
1048,11.8010298614367
1049,16.2199564410792
1050,14.6941786303195
1051,14.5059858524728
1052,21.5102254893935
1053,10.9773962383451
1054,10.3660651543309
1055,9.99819337536681
1056,12.3692011744722
1057,12.7651555197639
1058,10.332267359399
1059,11.4910091970762
1060,11.6849245387244
1061,18.6326264823246
1062,11.643501091233
1063,9.49056164233405
1064,28.5240146378717
1065,27.0541743417237
1066,27.0137502315142
1067,22.2019917043301
1199,15.6
1200,26.7
1237,15.6
1238,26.7
1275,15.6
1276,26.7
1313,15.6
1314,26.7
1351,15.6
1352,26.7
1389,15.6
1390,26.7
1427,15.6
1428,26.7
1465,15.6
1466,26.7
1503,15.6
1504,26.7
1541,15.6
1542,26.7
1579,15.6
1580,26.7
1617,15.6
1618,26.7
1655,15.6
1656,26.7
1693,15.6
1694,26.7
1731,15.6
1732,26.7
1769,15.6
1770,26.7
1807,0.0
1808,0.0
1845,0.0
1846,0.0
1883,0.0
1884,0.0
1921,18.
1922,27.
1959,18.
1960,27.
1997,18.
1998,27.
2035,18.
2036,27.
1119,20.
1120,0.0
1121,21.
1122,12.
2255,782843.197959313
2,1,12,21, 0, 1,20.00,21.00,WinterDesignDay
1045,22.0319167370073
1046,20.7625890359078
1047,13.2507151951599
1048,11.8010195728212
1049,16.2200696214091
1050,14.6942778621755
1051,14.5059996075019
1052,21.5100166523356
1053,10.9775434170235
1054,10.3661303590039
1055,9.99826459640922
1056,12.3692015898434
1057,12.7654518723658
1058,10.3323935105369
1059,11.4912052570403
1060,11.6849460650472
1061,18.6325770808706
1062,11.6435776462305
1063,9.49101408679389
1064,28.524010814655
1065,27.2223523140255
1066,27.0557509073585
1067,22.2020003896906
1199,15.6
1200,26.7
1237,15.6
1238,26.7
1275,15.6
1276,26.7
1313,15.6
1314,26.7
1351,15.6
1352,26.7
1389,15.6
1390,26.7
1427,15.6
1428,26.7
1465,15.6
1466,26.7
1503,15.6
1504,26.7
1541,15.6
1542,26.7
1579,15.6
1580,26.7
1617,15.6
1618,26.7
1655,15.6
1656,26.7
1693,15.6
1694,26.7
1731,15.6
1732,26.7
1769,15.6
1770,26.7
1807,0.0
1808,0.0
1845,0.0
1846,0.0
1883,0.0
1884,0.0
1921,18.
1922,27.
1959,18.
1960,27.
1997,18.
1998,27.
2035,18.
2036,27.
1119,21.
1120,0.0
1121,21.
1122,12.
2255,775761.346839941
2,1,12,21, 0, 1,21.00,22.00,WinterDesignDay
1045,22.0322197723675
1046,20.7626681234969
1047,13.2506494327301
1048,11.8010119271169
1049,16.2201820321941
1050,14.6943756570508
1051,14.5060132659359
1052,21.5098147679613
1053,10.9776751879137
1054,10.3661892143629
1055,9.99832656520875
1056,12.3691993971672
1057,12.7657301490201
1058,10.3325113049038
1059,11.491389036041
1060,11.6849642594259
1061,18.6325336486345
1062,11.6436424664195
1063,9.49145031732875
1064,28.5240075268479
1065,27.0541746465124
1066,27.0137522068712
1067,22.2020090504751
1199,15.6
1200,26.7
1237,15.6
1238,26.7
1275,15.6
1276,26.7
1313,15.6
1314,26.7
1351,15.6
1352,26.7
1389,15.6
1390,26.7
1427,15.6
1428,26.7
1465,15.6
1466,26.7
1503,15.6
1504,26.7
1541,15.6
1542,26.7
1579,15.6
1580,26.7
1617,15.6
1618,26.7
1655,15.6
1656,26.7
1693,15.6
1694,26.7
1731,15.6
1732,26.7
1769,15.6
1770,26.7
1807,0.0
1808,0.0
1845,0.0
1846,0.0
1883,0.0
1884,0.0
1921,18.
1922,27.
1959,18.
1960,27.
1997,18.
1998,27.
2035,18.
2036,27.
1119,22.
1120,0.0
1121,21.
1122,12.
2255,782843.423470867
2,1,12,21, 0, 1,22.00,23.00,WinterDesignDay
1045,22.0325223161479
1046,20.7627588319229
1047,13.2505864118249
1048,11.8010065466791
1049,16.220293604661
1050,14.694471756736
1051,14.5060266481424
1052,21.5096187388294
1053,10.9777929081497
1054,10.3662414281417
1055,9.99837970014574
1056,12.369193692086
1057,12.7659921977583
1058,10.3326215984752
1059,11.491561814422
1060,11.6849794053805
1061,18.632495789807
1062,11.6436967291961
1063,9.49187131917222
1064,28.5240044742656
1065,27.2223531888894
1066,27.0557585883471
1067,22.2020176898444
1199,15.6
1200,26.7
1237,15.6
1238,26.7
1275,15.6
1276,26.7
1313,15.6
1314,26.7
1351,15.6